TITLE = "Heart MESH maped with nodal value" 
VARIABLES = "x", "y", "z", "u", "v", "w" 
ZONE T="Fitted LV Mesh", N=5792, E=2865, F=FEPOINT, ET=BRICK
58.431268	35.328366	-9.886838	0.000000	0.000000	0.317546
57.045510	35.368338	-11.305049	0.000000	6.000000	0.317659
55.603495	35.295495	-12.673573	0.000000	12.000000	0.318953
54.098367	35.087366	-13.978182	0.000000	18.000000	0.321021
52.531227	34.722002	-15.197204	0.000000	24.000000	0.323458
50.911967	34.180257	-16.302840	0.000000	30.000000	0.325856
49.259669	33.448003	-17.262834	0.000000	36.000000	0.327809
47.602543	32.518191	-18.042472	0.000000	42.000000	0.328910
45.977372	31.392668	-18.606833	0.000000	48.000000	0.328754
44.428276	30.083990	-18.923728	0.000000	54.000000	0.326943
42.997449	28.625797	-18.982644	0.000000	60.000000	0.323422
41.713672	27.067111	-18.800851	0.000000	66.000000	0.318545
40.594614	25.453893	-18.403824	0.000000	72.000000	0.312690
39.647574	23.826183	-17.821818	0.000000	78.000000	0.306234
38.870357	22.216556	-17.087554	0.000000	84.000000	0.299557
38.252530	20.649021	-16.233927	0.000000	90.000000	0.293036
37.777005	19.138374	-15.291831	0.000000	96.000000	0.287050
37.421866	17.690002	-14.288155	0.000000	102.000000	0.281977
37.164796	16.300755	-13.242183	0.000000	108.000000	0.278144
36.998240	14.965425	-12.156558	0.000000	114.000000	0.275566
36.922588	13.681091	-11.028156	0.000000	120.000000	0.274136
36.940548	12.447258	-9.853813	0.000000	126.000000	0.273748
37.056664	11.266043	-8.630988	0.000000	132.000000	0.274296
37.276774	10.142248	-7.358363	0.000000	138.000000	0.275675
37.607408	9.083282	-6.036377	0.000000	144.000000	0.277779
38.055153	8.098974	-4.667680	0.000000	150.000000	0.280500
38.625976	7.201225	-3.257480	0.000000	156.000000	0.283735
39.322323	6.400793	-1.813422	0.000000	162.000000	0.287437
40.141947	5.704014	-0.343686	0.000000	168.000000	0.291666
41.082516	5.116581	1.144069	0.000000	174.000000	0.296492
42.142188	4.644281	2.642586	0.000000	180.000000	0.301984
43.319657	4.293278	4.144784	0.000000	186.000000	0.308213
44.614121	4.070364	5.643498	0.000000	192.000000	0.315249
46.025190	3.983180	7.131179	0.000000	198.000000	0.323161
47.552723	4.040379	8.599574	0.000000	204.000000	0.332020
49.196687	4.253192	10.038127	0.000000	210.000000	0.341865
50.955342	4.647190	11.421134	0.000000	216.000000	0.352429
52.817884	5.252187	12.709886	0.000000	222.000000	0.363272
54.761926	6.091159	13.860544	0.000000	228.000000	0.373954
56.753764	7.177845	14.826648	0.000000	234.000000	0.384032
58.749198	8.514747	15.561813	0.000000	240.000000	0.393064
60.694919	10.091522	16.022616	0.000000	246.000000	0.400610
62.530449	11.883877	16.171567	0.000000	252.000000	0.406228
64.190632	13.853042	15.980086	0.000000	258.000000	0.409475
65.616380	15.944113	15.440757	0.000000	264.000000	0.410107
66.774721	18.091107	14.582573	0.000000	270.000000	0.408389
67.648421	20.232158	13.446348	0.000000	276.000000	0.404669
68.232513	22.313150	12.077856	0.000000	282.000000	0.399296
68.533048	24.289172	10.525218	0.000000	288.000000	0.392618
68.565477	26.125450	8.836422	0.000000	294.000000	0.384985
68.352751	27.797753	7.057049	0.000000	300.000000	0.376744
67.923253	29.292306	5.228290	0.000000	306.000000	0.368245
67.308328	30.605065	3.385167	0.000000	312.000000	0.359829
66.535562	31.737268	1.554005	0.000000	318.000000	0.351740
65.628372	32.693041	-0.245730	0.000000	324.000000	0.344138
64.609048	33.480388	-1.999332	0.000000	330.000000	0.337179
63.497932	34.110371	-3.696900	0.000000	336.000000	0.331021
62.312581	34.596124	-5.333249	0.000000	342.000000	0.325822
61.067065	34.951809	-6.907636	0.000000	348.000000	0.321738
59.771419	35.191549	-8.423299	0.000000	354.000000	0.318927
59.633727	34.375033	-11.078904	-1.800000	0.000000	0.320013
58.207897	34.349547	-12.474497	-1.800000	6.000000	0.318838
56.735284	34.203396	-13.804659	-1.800000	12.000000	0.318700
55.212759	33.919964	-15.056584	-1.800000	18.000000	0.319256
53.643720	33.483226	-16.211522	-1.800000	24.000000	0.320163
52.038763	32.879635	-17.245873	-1.800000	30.000000	0.321079
50.415985	32.099950	-18.132593	-1.800000	36.000000	0.321662
48.800909	31.140921	-18.842853	-1.800000	42.000000	0.321568
47.226000	30.006765	-19.347909	-1.800000	48.000000	0.320457
45.729628	28.710646	-19.621545	-1.800000	54.000000	0.317993
44.348314	27.283342	-19.656206	-1.800000	60.000000	0.314134
43.107022	25.768350	-19.468143	-1.800000	66.000000	0.309185
42.021037	24.206313	-19.080584	-1.800000	72.000000	0.303475
41.096627	22.632602	-18.520791	-1.800000	78.000000	0.297329
40.331814	21.076009	-17.818045	-1.800000	84.000000	0.291075
39.717488	19.557825	-17.001682	-1.800000	90.000000	0.285040
39.238787	18.091298	-16.099202	-1.800000	96.000000	0.279552
38.876695	16.681485	-15.134547	-1.800000	102.000000	0.274936
38.611721	15.325994	-14.125104	-1.800000	108.000000	0.271480
38.436125	14.020289	-13.074321	-1.800000	114.000000	0.269219
38.348675	12.761219	-11.980396	-1.800000	120.000000	0.268091
38.350308	11.547216	-10.840860	-1.800000	126.000000	0.268035
38.443890	10.378587	-9.653096	-1.800000	132.000000	0.268990
38.633886	9.257725	-8.414850	-1.800000	138.000000	0.270896
38.925990	8.189214	-7.124714	-1.800000	144.000000	0.273689
39.326679	7.179849	-5.782571	-1.800000	150.000000	0.277311
39.842745	6.238547	-4.389987	-1.800000	156.000000	0.281699
40.479944	5.375108	-2.950413	-1.800000	162.000000	0.286815
41.242283	4.598911	-1.468680	-1.800000	168.000000	0.292662
42.133484	3.920239	0.049231	-1.800000	174.000000	0.299244
43.156910	3.350409	1.596013	-1.800000	180.000000	0.306567
44.315301	2.901682	3.162843	-1.800000	186.000000	0.314637
45.610494	2.587123	4.739241	-1.800000	192.000000	0.323460
47.043136	2.420421	6.312949	-1.800000	198.000000	0.333041
48.612393	2.415665	7.869854	-1.800000	204.000000	0.343386
50.315734	2.588312	9.392887	-1.800000	210.000000	0.354474
52.147260	2.964935	10.851507	-1.800000	216.000000	0.366027
54.091518	3.574322	12.203795	-1.800000	222.000000	0.377620
56.121506	4.437728	13.403449	-1.800000	228.000000	0.388825
58.199061	5.566585	14.402316	-1.800000	234.000000	0.399216
60.275799	6.960592	15.153113	-1.800000	240.000000	0.408366
62.294623	8.606225	15.612313	-1.800000	246.000000	0.415848
64.191787	10.475746	15.743101	-1.800000	252.000000	0.421236
65.899490	12.526816	15.518302	-1.800000	258.000000	0.424103
67.356962	14.700861	14.932654	-1.800000	264.000000	0.424220
68.531046	16.928212	14.018026	-1.800000	270.000000	0.421878
69.405323	19.143919	12.818373	-1.800000	276.000000	0.417452
69.976409	21.291566	11.382616	-1.800000	282.000000	0.411316
70.252544	23.324786	9.761829	-1.800000	288.000000	0.403844
70.251787	25.208203	8.006589	-1.800000	294.000000	0.395413
69.999929	26.917800	6.164560	-1.800000	300.000000	0.386395
69.528232	28.440763	4.278398	-1.800000	306.000000	0.377166
68.870690	29.774584	2.383873	-1.800000	312.000000	0.368093
68.055651	30.921430	0.506947	-1.800000	318.000000	0.359410
67.105820	31.885227	-1.333545	-1.800000	324.000000	0.351246
66.042831	32.673287	-3.122992	-1.800000	330.000000	0.343721
64.886624	33.295629	-4.851002	-1.800000	336.000000	0.336960
63.654752	33.764140	-6.511302	-1.800000	342.000000	0.331086
62.361807	34.091698	-8.101501	-1.800000	348.000000	0.326221
61.018974	34.291272	-9.622687	-1.800000	354.000000	0.322489
60.817496	33.385523	-12.256675	-3.600000	0.000000	0.322089
59.354718	33.297262	-13.626490	-3.600000	6.000000	0.319661
57.854318	33.080834	-14.915497	-3.600000	12.000000	0.318123
56.316906	32.725399	-16.112337	-3.600000	18.000000	0.317197
54.748196	32.220766	-17.201194	-3.600000	24.000000	0.316602
53.159509	31.558884	-18.162680	-3.600000	30.000000	0.316061
51.567998	30.735285	-18.974957	-3.600000	36.000000	0.315296
49.996557	29.750401	-19.615067	-3.600000	42.000000	0.314026
48.473418	28.610711	-20.060414	-3.600000	48.000000	0.311975
47.031299	27.329898	-20.290721	-3.600000	54.000000	0.308869
45.701108	25.935883	-20.301369	-3.600000	60.000000	0.304680
44.503958	24.466729	-20.107579	-3.600000	66.000000	0.299666
43.452683	22.957845	-19.730349	-3.600000	72.000000	0.294106
42.552419	21.439990	-19.193955	-3.600000	78.000000	0.288277
41.801293	19.938201	-18.524258	-3.600000	84.000000	0.282456
41.191386	18.471036	-17.747024	-3.600000	90.000000	0.276920
40.709937	17.050146	-16.886335	-3.600000	96.000000	0.271948
40.340710	15.680178	-15.963137	-3.600000	102.000000	0.267816
40.066975	14.359392	-14.992815	-3.600000	108.000000	0.264771
39.880995	13.083851	-13.979408	-3.600000	114.000000	0.262865
39.780213	11.850190	-12.922235	-3.600000	120.000000	0.262078
39.764119	10.655892	-11.819393	-3.600000	126.000000	0.262389
39.834200	9.499664	-10.668162	-3.600000	132.000000	0.263777
39.993822	8.381769	-9.465426	-3.600000	138.000000	0.266221
40.248045	7.304291	-8.208114	-3.600000	144.000000	0.269700
40.603367	6.271341	-6.893636	-3.600000	150.000000	0.274194
41.067424	5.289189	-5.520312	-3.600000	156.000000	0.279681
41.649034	4.366840	-4.087846	-3.600000	162.000000	0.286129
42.357904	3.516539	-2.598066	-3.600000	168.000000	0.293487
43.203243	2.752846	-1.055474	-3.600000	174.000000	0.301700
44.193114	2.092207	0.532518	-3.600000	180.000000	0.310716
45.333887	1.552524	2.155441	-3.600000	186.000000	0.320480
46.629720	1.152666	3.799725	-3.600000	192.000000	0.330940
48.082100	0.911918	5.448742	-3.600000	198.000000	0.342040
49.689424	0.849393	7.082960	-3.600000	204.000000	0.353728
51.446704	0.984452	8.679298	-3.600000	210.000000	0.365928
53.344065	1.344468	10.202830	-3.600000	216.000000	0.378352
55.361681	1.957101	11.608840	-3.600000	222.000000	0.390591
57.468266	2.841860	12.848967	-3.600000	228.000000	0.402234
59.621580	4.007923	13.873753	-3.600000	234.000000	0.412870
61.769494	5.452328	14.635357	-3.600000	240.000000	0.422090
63.851602	7.158597	15.090439	-3.600000	246.000000	0.429481
65.801388	9.095873	15.203067	-3.600000	252.000000	0.434634
67.548913	11.218666	14.947588	-3.600000	258.000000	0.437139
69.032160	13.465235	14.320803	-3.600000	264.000000	0.436784
70.217983	15.762772	13.357039	-3.600000	270.000000	0.433882
71.090812	18.043706	12.102870	-3.600000	276.000000	0.428828
71.648758	20.249668	10.609821	-3.600000	282.000000	0.422020
71.902045	22.333066	8.931395	-3.600000	288.000000	0.413854
71.871052	24.258020	7.120267	-3.600000	294.000000	0.404726
71.584056	26.000706	5.225767	-3.600000	300.000000	0.395033
71.074819	27.549122	3.291697	-3.600000	306.000000	0.385172
70.379603	28.902058	1.354365	-3.600000	312.000000	0.375530
69.527278	30.062400	-0.560658	-3.600000	318.000000	0.366333
68.539724	31.033761	-2.435084	-3.600000	324.000000	0.357676
67.437835	31.822658	-4.254311	-3.600000	330.000000	0.349647
66.241090	32.437988	-6.007360	-3.600000	336.000000	0.342338
64.967005	32.890335	-7.686789	-3.600000	342.000000	0.335838
63.630668	33.191253	-9.288476	-3.600000	348.000000	0.330236
62.244396	33.352541	-10.811292	-3.600000	354.000000	0.325623
61.976748	32.353632	-13.415272	-5.400000	0.000000	0.323624
60.481020	32.205568	-14.755655	-5.400000	6.000000	0.319982
58.956586	31.922488	-16.000469	-5.400000	12.000000	0.317084
57.407720	31.499173	-17.139851	-5.400000	18.000000	0.314716
55.842389	30.931088	-18.160935	-5.400000	24.000000	0.312661
54.272608	30.215493	-19.048524	-5.400000	30.000000	0.310703
52.714584	29.352499	-19.785935	-5.400000	36.000000	0.308627
51.188628	28.346034	-20.355992	-5.400000	42.000000	0.306217
49.718823	27.204681	-20.742141	-5.400000	48.000000	0.303257
48.332368	25.942515	-20.929927	-5.400000	54.000000	0.299537
47.054651	24.584595	-20.917577	-5.400000	60.000000	0.295039
45.902951	23.163659	-20.719252	-5.400000	66.000000	0.289979
44.887627	21.709984	-20.353708	-5.400000	72.000000	0.284586
44.012631	20.249799	-19.842251	-5.400000	78.000000	0.279089
43.276115	18.804435	-19.207325	-5.400000	84.000000	0.273717
42.671267	17.389740	-18.471132	-5.400000	90.000000	0.268699
42.187325	16.015754	-17.654329	-5.400000	96.000000	0.264265
41.810740	14.686666	-16.774828	-5.400000	102.000000	0.260643
41.527487	13.401323	-15.845943	-5.400000	108.000000	0.258041
41.330005	12.156337	-14.872123	-5.400000	114.000000	0.256525
41.214692	10.948179	-13.853636	-5.400000	120.000000	0.256112
41.179872	9.773518	-12.789054	-5.400000	126.000000	0.256818
41.225923	8.629672	-11.675549	-5.400000	132.000000	0.258657
41.355342	7.515046	-10.509235	-5.400000	138.000000	0.261644
41.572727	6.429536	-9.285572	-5.400000	144.000000	0.265797
41.884691	5.374893	-7.999793	-5.400000	150.000000	0.271128
42.299707	4.355050	-6.647363	-5.400000	156.000000	0.277654
42.829411	3.378360	-5.224673	-5.400000	162.000000	0.285348
43.488663	2.459756	-3.730894	-5.400000	168.000000	0.294108
44.291615	1.617765	-2.169253	-5.400000	174.000000	0.303826
45.250532	0.873564	-0.547327	-5.400000	180.000000	0.314394
46.374994	0.250249	1.122845	-5.400000	186.000000	0.325703
47.671158	-0.227977	2.824816	-5.400000	192.000000	0.337645
49.141130	-0.536689	4.537922	-5.400000	198.000000	0.350111
50.782433	-0.652161	6.237634	-5.400000	204.000000	0.362993
52.587642	-0.551478	7.895360	-5.400000	210.000000	0.376164
54.543064	-0.206720	9.472269	-5.400000	216.000000	0.389331
56.624765	0.408474	10.921309	-5.400000	222.000000	0.402102
58.797525	1.311781	12.192531	-5.400000	228.000000	0.414085
61.015463	2.510122	13.235618	-5.400000	234.000000	0.424887
63.223206	3.997985	14.002593	-5.400000	240.000000	0.434117
65.357601	5.756164	14.450650	-5.400000	246.000000	0.441382
67.349965	7.751025	14.545006	-5.400000	252.000000	0.446291
69.128837	9.934385	14.261680	-5.400000	258.000000	0.448451
70.631466	12.241931	13.599443	-5.400000	264.000000	0.447669
71.824916	14.598366	12.594572	-5.400000	270.000000	0.444275
72.694463	16.934042	11.295652	-5.400000	276.000000	0.438681
73.239552	19.189050	9.756185	-5.400000	282.000000	0.431301
73.472107	21.314818	8.031491	-5.400000	288.000000	0.422547
73.414440	23.275058	6.175806	-5.400000	294.000000	0.412834
73.096873	25.046071	4.239679	-5.400000	300.000000	0.402574
72.555199	26.616465	2.267727	-5.400000	306.000000	0.392181
71.827504	27.986004	0.296611	-5.400000	312.000000	0.382057
70.942950	29.158045	-1.648446	-5.400000	318.000000	0.372418
69.922563	30.135768	-3.549552	-5.400000	324.000000	0.363329
68.786497	30.924831	-5.391976	-5.400000	330.000000	0.354848
67.553793	31.532982	-7.164044	-5.400000	336.000000	0.347034
66.241951	31.969509	-8.857062	-5.400000	342.000000	0.339946
64.866583	32.244687	-10.465136	-5.400000	348.000000	0.333642
63.441142	32.369208	-11.984918	-5.400000	354.000000	0.328182
63.105562	31.273599	-14.549692	-7.200000	0.000000	0.324473
61.581751	31.068977	-15.856533	-7.200000	6.000000	0.319655
60.037979	30.723435	-17.053910	-7.200000	12.000000	0.315444
58.482015	30.237144	-18.133528	-7.200000	18.000000	0.311685
56.923940	29.610971	-19.085484	-7.200000	24.000000	0.308223
55.376373	28.847213	-19.898721	-7.200000	30.000000	0.304904
53.854540	27.950292	-20.561602	-7.200000	36.000000	0.301573
52.376193	26.927385	-21.062585	-7.200000	42.000000	0.298074
50.961361	25.788959	-21.390971	-7.200000	48.000000	0.294253
49.631875	24.549330	-21.537920	-7.200000	54.000000	0.289960
48.407742	23.230687	-21.504360	-7.200000	60.000000	0.285190
47.302466	21.860558	-21.303332	-7.200000	66.000000	0.280115
46.323952	20.464210	-20.951331	-7.200000	72.000000	0.274916
45.474959	19.063447	-20.466689	-7.200000	78.000000	0.269777
44.753633	17.675976	-19.868444	-7.200000	84.000000	0.264877
44.154211	16.314982	-19.175249	-7.200000	90.000000	0.260401
43.667863	14.988915	-18.404333	-7.200000	96.000000	0.256529
43.283656	13.701496	-17.570570	-7.200000	102.000000	0.253444
42.990229	12.452122	-16.685152	-7.200000	108.000000	0.251313
42.780354	11.237949	-15.752791	-7.200000	114.000000	0.250219
42.649638	10.055350	-14.774574	-7.200000	120.000000	0.250208
42.595487	8.900327	-13.749488	-7.200000	126.000000	0.251329
42.617406	7.769020	-12.674613	-7.200000	132.000000	0.253630
42.717212	6.658241	-11.545409	-7.200000	138.000000	0.257159
42.899180	5.565991	-10.356069	-7.200000	144.000000	0.261964
43.170096	4.491960	-9.099943	-7.200000	150.000000	0.268094
43.539242	3.438029	-7.770023	-7.200000	156.000000	0.275595
44.020818	2.412020	-6.359809	-7.200000	162.000000	0.284444
44.634313	1.431376	-4.866154	-7.200000	168.000000	0.294495
45.398290	0.518285	-3.291216	-7.200000	174.000000	0.305589
46.328730	-0.301731	-1.642808	-7.200000	180.000000	0.317566
47.438003	-1.000821	0.065534	-7.200000	186.000000	0.330268
48.733932	-1.549911	1.814680	-7.200000	192.000000	0.343535
50.219007	-1.919891	3.580243	-7.200000	198.000000	0.357207
51.889752	-2.082843	5.333116	-7.200000	204.000000	0.371127
53.736288	-2.012662	7.039684	-7.200000	210.000000	0.385121
55.741241	-1.681190	8.657711	-7.200000	216.000000	0.398891
57.876832	-1.063607	10.138321	-7.200000	222.000000	0.412068
60.104281	-0.144230	11.430499	-7.200000	228.000000	0.424281
62.374541	1.081563	12.483589	-7.200000	234.000000	0.435158
64.629568	2.605782	13.249951	-7.200000	240.000000	0.444330
66.804112	4.406704	13.687727	-7.200000	246.000000	0.451426
68.828024	6.448278	13.763600	-7.200000	252.000000	0.456075
70.629043	8.680133	13.455438	-7.200000	258.000000	0.457906
72.144276	11.036049	12.763882	-7.200000	264.000000	0.456746
73.341191	13.439000	11.726584	-7.200000	270.000000	0.452934
74.205861	15.817898	10.393441	-7.200000	276.000000	0.446894
74.738835	18.111755	8.819219	-7.200000	282.000000	0.439051
74.953363	20.271298	7.060387	-7.200000	288.000000	0.429827
74.873215	22.259912	5.172150	-7.200000	294.000000	0.419646
74.530223	24.053927	3.205800	-7.200000	300.000000	0.408932
73.961653	25.642294	1.206445	-7.200000	306.000000	0.398109
73.206905	27.025359	-0.789062	-7.200000	312.000000	0.387588
72.295229	28.206649	-2.755740	-7.200000	318.000000	0.377575
71.246845	29.188800	-4.675875	-7.200000	324.000000	0.368107
70.081257	29.976571	-6.534424	-7.200000	330.000000	0.359215
68.817166	30.576584	-8.318892	-7.200000	336.000000	0.350929
67.472151	30.996913	-10.019265	-7.200000	342.000000	0.343281
66.062415	31.246668	-11.627874	-7.200000	348.000000	0.336301
64.602580	31.335580	-13.139212	-7.200000	354.000000	0.330022
64.197975	30.140187	-15.654853	-9.000000	0.000000	0.324486
62.651810	29.882498	-16.923629	-9.000000	6.000000	0.318535
61.094329	29.479213	-18.070165	-9.000000	12.000000	0.313064
59.536537	28.935586	-19.087824	-9.000000	18.000000	0.307976
57.990420	28.257549	-19.969665	-9.000000	24.000000	0.303174
56.469049	27.452089	-20.708692	-9.000000	30.000000	0.298563
54.986597	26.527597	-21.298158	-9.000000	36.000000	0.294047
53.558266	25.494184	-21.731931	-9.000000	42.000000	0.289529
52.200128	24.363944	-22.004901	-9.000000	48.000000	0.284912
50.928824	23.151247	-22.113565	-9.000000	54.000000	0.280105
49.759160	21.875397	-22.061343	-9.000000	60.000000	0.275113
48.700963	20.558845	-21.860075	-9.000000	66.000000	0.270066
47.759752	19.221985	-21.523958	-9.000000	72.000000	0.265100
46.937128	17.882323	-21.068341	-9.000000	78.000000	0.260351
46.231236	16.554048	-20.508869	-9.000000	84.000000	0.255955
45.637342	15.247763	-19.860660	-9.000000	90.000000	0.252048
45.148514	13.970378	-19.137537	-9.000000	96.000000	0.248766
44.756382	12.725174	-18.351341	-9.000000	102.000000	0.246244
44.452222	11.512098	-17.511124	-9.000000	108.000000	0.244614
44.229289	10.328871	-16.621751	-9.000000	114.000000	0.243966
44.082617	9.171859	-15.685032	-9.000000	120.000000	0.244379
44.008917	8.036552	-14.700337	-9.000000	126.000000	0.245930
44.007014	6.918128	-13.664707	-9.000000	132.000000	0.248697
44.078203	5.812054	-12.573072	-9.000000	138.000000	0.252758
44.226536	4.714710	-11.418572	-9.000000	144.000000	0.258189
44.458996	3.624002	-10.192968	-9.000000	150.000000	0.265070
44.785622	2.540014	-8.887148	-9.000000	156.000000	0.273476
45.222916	1.470133	-7.492130	-9.000000	162.000000	0.283387
45.794494	0.434144	-6.002774	-9.000000	168.000000	0.294615
46.522815	-0.542403	-4.420376	-9.000000	174.000000	0.306953
47.427101	-1.430016	-2.753057	-9.000000	180.000000	0.320196
48.522091	-2.196517	-1.015794	-9.000000	186.000000	0.334136
49.816935	-2.808414	0.769783	-9.000000	192.000000	0.348567
51.314256	-3.232363	2.575864	-9.000000	198.000000	0.363283
53.009430	-3.436680	4.369161	-9.000000	204.000000	0.378077
54.890087	-3.392451	6.111517	-9.000000	210.000000	0.392735
56.935284	-3.071642	7.757806	-9.000000	216.000000	0.406959
59.113659	-2.451296	9.257880	-9.000000	222.000000	0.420405
61.383264	-1.517943	10.560232	-9.000000	228.000000	0.432725
63.692412	-0.269365	11.614439	-9.000000	234.000000	0.443576
65.981027	1.284010	12.373739	-9.000000	240.000000	0.452612
68.182494	3.118141	12.797686	-9.000000	246.000000	0.459486
70.225998	5.194927	12.854781	-9.000000	252.000000	0.463854
72.039300	7.462351	12.524954	-9.000000	258.000000	0.465371
73.560036	9.853027	11.810606	-9.000000	264.000000	0.463882
74.756259	12.289065	10.750119	-9.000000	270.000000	0.459733
75.614739	14.698663	9.393931	-9.000000	276.000000	0.453351
76.136829	17.020270	7.797292	-9.000000	282.000000	0.445161
76.336643	19.204212	6.017088	-9.000000	288.000000	0.435592
76.238842	21.213631	4.108861	-9.000000	294.000000	0.425070
75.876137	23.024753	2.124156	-9.000000	300.000000	0.414021
75.286636	24.626558	0.108243	-9.000000	306.000000	0.402873
74.510472	26.019506	-1.901956	-9.000000	312.000000	0.392039
73.576800	27.206953	-3.881541	-9.000000	318.000000	0.381714
72.505173	28.190879	-5.812693	-9.000000	324.000000	0.371911
71.314622	28.975129	-7.679838	-9.000000	330.000000	0.362638
70.023686	29.565276	-9.469519	-9.000000	336.000000	0.353902
68.650183	29.968318	-11.170348	-9.000000	342.000000	0.345711
67.211023	30.192396	-12.772921	-9.000000	348.000000	0.338073
65.722058	30.246497	-14.269698	-9.000000	354.000000	0.330996
65.248054	28.948761	-16.725647	-10.800000	0.000000	0.323517
63.686101	28.641711	-17.951481	-10.800000	6.000000	0.316478
62.121459	28.185880	-19.043664	-10.800000	12.000000	0.309806
60.568013	27.591229	-19.997318	-10.800000	18.000000	0.303459
59.039366	26.868347	-20.808460	-10.800000	24.000000	0.297398
57.548839	26.028484	-21.474036	-10.800000	30.000000	0.291581
56.109439	25.083588	-21.991978	-10.800000	36.000000	0.285967
54.733815	24.046337	-22.361281	-10.800000	42.000000	0.280515
53.434181	22.930149	-22.582086	-10.800000	48.000000	0.275184
52.222193	21.749233	-22.655861	-10.800000	54.000000	0.269935
51.107667	20.519991	-22.588261	-10.800000	60.000000	0.264786
50.096901	19.259938	-22.389824	-10.800000	66.000000	0.259824
49.193134	17.984750	-22.072398	-10.800000	72.000000	0.255140
48.396889	16.707783	-21.648333	-10.800000	78.000000	0.250824
47.706352	15.439838	-21.129891	-10.800000	84.000000	0.246968
47.117835	14.189045	-20.528682	-10.800000	90.000000	0.243663
46.626296	12.960860	-19.855151	-10.800000	96.000000	0.241000
46.225903	11.758179	-19.118135	-10.800000	102.000000	0.239070
45.910550	10.581540	-18.324551	-10.800000	108.000000	0.237966
45.674110	9.429276	-17.479345	-10.800000	114.000000	0.237787
45.511244	8.297860	-16.584989	-10.800000	120.000000	0.238641
45.418153	7.182435	-15.641242	-10.800000	126.000000	0.240629
45.393137	6.077424	-14.645176	-10.800000	132.000000	0.243859
45.437093	4.977192	-13.591341	-10.800000	138.000000	0.248433
45.553908	3.876751	-12.472040	-10.800000	144.000000	0.254457
45.750765	2.772472	-11.277738	-10.800000	150.000000	0.262036
46.038373	1.662862	-9.997576	-10.800000	156.000000	0.271272
46.435275	0.554962	-8.620475	-10.800000	162.000000	0.282148
46.968728	-0.529279	-7.139622	-10.800000	168.000000	0.294436
47.664590	-1.561227	-5.555648	-10.800000	174.000000	0.307886
48.544857	-2.507785	-3.877055	-10.800000	180.000000	0.322246
49.626226	-3.332860	-2.120219	-10.800000	186.000000	0.337268
50.918823	-3.998983	-0.309096	-10.800000	192.000000	0.352699
52.425147	-4.469020	1.525358	-10.800000	198.000000	0.368290
54.139254	-4.707949	3.346056	-10.800000	204.000000	0.383791
56.046220	-4.684443	5.110764	-10.800000	210.000000	0.398946
58.121625	-4.371014	6.771998	-10.800000	216.000000	0.413464
60.330786	-3.746955	8.278918	-10.800000	222.000000	0.427028
62.629010	-2.801302	9.580149	-10.800000	228.000000	0.439323
64.962534	-1.534394	10.626119	-10.800000	234.000000	0.450033
67.269954	0.040904	11.371530	-10.800000	240.000000	0.458842
69.484107	1.898414	11.777863	-10.800000	246.000000	0.465436
71.534401	3.998364	11.815824	-10.800000	252.000000	0.469499
73.349538	6.287663	11.467641	-10.800000	258.000000	0.470714
74.868417	8.698565	10.737352	-10.800000	264.000000	0.468949
76.059844	11.153282	9.663377	-10.800000	270.000000	0.464549
76.911137	13.580103	8.295852	-10.800000	276.000000	0.457934
77.424076	15.917492	6.689674	-10.800000	282.000000	0.449525
77.613097	18.115703	4.901367	-10.800000	288.000000	0.439745
77.503092	20.137710	2.986149	-10.800000	294.000000	0.429015
77.126936	21.959483	0.995309	-10.800000	300.000000	0.417757
76.522862	23.569663	-1.026037	-10.800000	306.000000	0.406391
75.731102	24.968300	-3.040997	-10.800000	312.000000	0.395326
74.780552	26.158189	-5.024526	-10.800000	318.000000	0.384745
73.690327	27.140539	-6.958364	-10.800000	324.000000	0.374642
72.479246	27.918298	-8.826154	-10.800000	330.000000	0.365008
71.165949	28.496104	-10.613328	-10.800000	336.000000	0.355833
69.768718	28.880088	-12.307090	-10.800000	342.000000	0.347107
68.305337	29.077676	-13.896380	-10.800000	348.000000	0.338819
66.792970	29.097410	-15.371821	-10.800000	354.000000	0.330959
66.249968	27.695347	-17.757007	-12.600000	0.000000	0.321416
64.679607	27.342825	-18.934728	-12.600000	6.000000	0.313337
63.115241	26.840068	-19.968990	-12.600000	12.000000	0.305530
61.573191	26.201309	-20.856790	-12.600000	18.000000	0.298008
60.068317	25.441310	-21.597075	-12.600000	24.000000	0.290780
58.613928	24.575095	-22.190585	-12.600000	30.000000	0.283856
57.221723	23.617697	-22.639670	-12.600000	36.000000	0.277248
55.901776	22.583935	-22.948101	-12.600000	42.000000	0.270965
54.662549	21.488206	-23.120862	-12.600000	48.000000	0.265017
53.510935	20.344324	-23.163958	-12.600000	54.000000	0.259416
52.452014	19.165762	-23.084973	-12.600000	60.000000	0.254188
51.488739	17.965254	-22.893016	-12.600000	66.000000	0.249380
50.622223	16.753927	-22.597525	-12.600000	72.000000	0.245036
49.852023	15.541152	-22.207834	-12.600000	78.000000	0.241206
49.176453	14.334496	-21.732830	-12.600000	84.000000	0.237935
48.592920	13.139754	-21.180646	-12.600000	90.000000	0.235270
48.098293	11.961044	-20.558391	-12.600000	96.000000	0.233259
47.689270	10.800967	-19.871946	-12.600000	102.000000	0.231948
47.362363	9.660717	-19.126123	-12.600000	108.000000	0.231393
47.112185	8.539330	-18.325911	-12.600000	114.000000	0.231703
46.933191	7.433507	-17.474422	-12.600000	120.000000	0.233007
46.821224	6.338221	-16.571838	-12.600000	126.000000	0.235435
46.774190	5.247347	-15.615363	-12.600000	132.000000	0.239115
46.792662	4.154372	-14.599327	-12.600000	138.000000	0.244179
46.880395	3.053171	-13.515424	-12.600000	144.000000	0.250754
47.044733	1.938804	-12.353112	-12.600000	150.000000	0.258971
47.296953	0.808395	-11.100123	-12.600000	156.000000	0.268957
47.657368	-0.331302	-9.743651	-12.600000	162.000000	0.280698
48.156410	-1.456334	-8.275505	-12.600000	168.000000	0.293927
48.822857	-2.535261	-6.695843	-12.600000	174.000000	0.308352
49.681029	-3.531718	-5.013630	-12.600000	180.000000	0.323682
50.749167	-4.406095	-3.246594	-12.600000	186.000000	0.339625
52.038029	-5.117373	-1.420867	-12.600000	192.000000	0.355889
53.549711	-5.625068	0.429715	-12.600000	198.000000	0.372183
55.276764	-5.891244	2.264625	-12.600000	204.000000	0.388214
57.201628	-5.882574	4.038005	-12.600000	210.000000	0.403691
59.296482	-5.572585	5.700547	-12.600000	216.000000	0.418331
61.523588	-4.943282	7.201331	-12.600000	222.000000	0.431853
63.835946	-3.986557	8.489767	-12.600000	228.000000	0.443976
66.178334	-2.705521	9.517800	-12.600000	234.000000	0.454420
68.488785	-1.115507	10.242222	-12.600000	240.000000	0.462905
70.700476	0.755338	10.626983	-12.600000	246.000000	0.469150
72.744010	2.865948	10.645418	-12.600000	252.000000	0.472876
74.550035	5.162756	10.282299	-12.600000	258.000000	0.473801
76.059505	7.578522	9.543176	-12.600000	264.000000	0.471816
77.242133	10.036618	8.465762	-12.600000	270.000000	0.467256
78.085575	12.466308	7.099004	-12.600000	276.000000	0.460526
78.591599	14.806699	5.496562	-12.600000	282.000000	0.452034
78.774337	17.008328	3.713785	-12.600000	288.000000	0.442187
78.658168	19.034085	1.804878	-12.600000	294.000000	0.431391
78.275335	20.859506	-0.179639	-12.600000	300.000000	0.420053
77.663407	22.472485	-2.195108	-12.600000	306.000000	0.408579
76.862015	23.872080	-4.204733	-12.600000	312.000000	0.397364
75.899664	25.060099	-6.183051	-12.600000	318.000000	0.386577
74.795345	26.036860	-8.110971	-12.600000	324.000000	0.376201
73.568019	26.804450	-9.971077	-12.600000	330.000000	0.366217
72.236761	27.366735	-11.747536	-12.600000	336.000000	0.356603
70.820613	27.729233	-13.426132	-12.600000	342.000000	0.347337
69.338447	27.898989	-14.994274	-12.600000	348.000000	0.338398
67.808842	27.884450	-16.441006	-12.600000	354.000000	0.329765
67.199197	26.378501	-18.744869	-14.400000	0.000000	0.318076
65.628401	25.984517	-19.869238	-14.400000	6.000000	0.309004
64.072405	25.440762	-20.842147	-14.400000	12.000000	0.300137
62.549445	24.765249	-21.662580	-14.400000	18.000000	0.291529
61.075210	23.976376	-22.332374	-14.400000	24.000000	0.283239
59.662689	23.092385	-22.855870	-14.400000	30.000000	0.275323
58.322103	22.130873	-23.239528	-14.400000	36.000000	0.267838
57.060920	21.108335	-23.491485	-14.400000	42.000000	0.260841
55.883966	20.039772	-23.621092	-14.400000	48.000000	0.254389
54.793618	18.938350	-23.638398	-14.400000	54.000000	0.248538
53.790512	17.814590	-23.552560	-14.400000	60.000000	0.243321
52.874480	16.676614	-23.371136	-14.400000	66.000000	0.238744
52.044698	15.531188	-23.101088	-14.400000	72.000000	0.234810
51.299910	14.383884	-22.748714	-14.400000	78.000000	0.231522
50.638667	13.239215	-22.319549	-14.400000	84.000000	0.228885
50.059548	12.100801	-21.818289	-14.400000	90.000000	0.226902
49.561370	10.971561	-21.248771	-14.400000	96.000000	0.225576
49.143371	9.853922	-20.613983	-14.400000	102.000000	0.224911
48.804678	8.749828	-19.916692	-14.400000	108.000000	0.224926